# CIF file 
data_findsym-output
_audit_creation_method FINDSYM

_chemical_name_mineral 'H2S'
_chemical_formula_sum 'H2 S'

loop_
_publ_author_name
 'Y. Li'
 'J. Hao'
 'H. Liu'
 'Y. Li'
 'Y. Ma'
_journal_name_full_name
;
 Journal of Chemical Physics
;
_journal_volume 140
_journal_year 2014
_journal_page_first 174712
_journal_page_last 174712
_publ_Section_title
;
 The metallization and superconductivity of dense hydrogen sulfide
;

_aflow_title 'H$_{2}$S (70~GPa) Structure'
_aflow_proto 'A2B_oP12_26_abc_ab'
_aflow_params 'a,b/a,c/a,y_{1},z_{1},y_{2},z_{2},y_{3},z_{3},y_{4},z_{4},x_{5},y_{5},z_{5}'
_aflow_params_values '4.6806,0.627034995513,1.05710806307,0.455,0.858,0.179,0.623,0.048,0.545,0.375,0.355,0.751,0.119,0.213'
_aflow_Strukturbericht 'None'
_aflow_Pearson 'oP12'

_symmetry_space_group_name_H-M "P m c 21"
_symmetry_Int_Tables_number 26
 
_cell_length_a    4.68060
_cell_length_b    2.93490
_cell_length_c    4.94790
_cell_angle_alpha 90.00000
_cell_angle_beta  90.00000
_cell_angle_gamma 90.00000
 
loop_
_space_group_symop_id
_space_group_symop_operation_xyz
1 x,y,z
2 -x,-y,z+1/2
3 -x,y,z
4 x,-y,z+1/2
 
loop_
_atom_site_label
_atom_site_type_symbol
_atom_site_symmetry_multiplicity
_atom_site_Wyckoff_label
_atom_site_fract_x
_atom_site_fract_y
_atom_site_fract_z
_atom_site_occupancy
H1 H   2 a 0.00000 0.45500 0.85800 1.00000
S1 S   2 a 0.00000 0.17900 0.62300 1.00000
H2 H   2 b 0.50000 0.04800 0.54500 1.00000
S2 S   2 b 0.50000 0.37500 0.35500 1.00000
H3 H   4 c 0.75100 0.11900 0.21300 1.00000
