# CIF file
data_findsym-output
_audit_creation_method FINDSYM

_chemical_name_mineral 'SrH2'
_chemical_formula_sum 'H2 Sr'

loop_
_publ_author_name
 'R. C. Ropp'
_journal_year 2013
_publ_Section_title
;
 Encyclopedia of the Alkaline Earth Compounds
;

_aflow_title 'SrH$_{2}$ ($C29$) Structure'
_aflow_proto 'A2B_oP12_62_2c_c'
_aflow_params 'a,b/a,c/a,x_{1},z_{1},x_{2},z_{2},x_{3},z_{3}'
_aflow_params_values '3.875,1.64232258065,1.89496774194,0.004,0.758,0.24,0.07,0.24,0.39'
_aflow_Strukturbericht '$C29$'
_aflow_Pearson 'oP12'

_symmetry_space_group_name_H-M "P 21/n 21/m 21/a"
_symmetry_Int_Tables_number 62
 
_cell_length_a    3.87500
_cell_length_b    6.36400
_cell_length_c    7.34300
_cell_angle_alpha 90.00000
_cell_angle_beta  90.00000
_cell_angle_gamma 90.00000
 
loop_
_space_group_symop_id
_space_group_symop_operation_xyz
1 x,y,z
2 x+1/2,-y+1/2,-z+1/2
3 -x,y+1/2,-z
4 -x+1/2,-y,z+1/2
5 -x,-y,-z
6 -x+1/2,y+1/2,z+1/2
7 x,-y+1/2,z
8 x+1/2,y,-z+1/2
 
loop_
_atom_site_label
_atom_site_type_symbol
_atom_site_symmetry_multiplicity
_atom_site_Wyckoff_label
_atom_site_fract_x
_atom_site_fract_y
_atom_site_fract_z
_atom_site_occupancy
H1  H    4 c 0.00400 0.25000 0.75800 1.00000
H2  H    4 c 0.24000 0.25000 0.07000 1.00000
Sr1 Sr   4 c 0.24000 0.25000 0.39000 1.00000
