# CIF file
data_findsym-output
_audit_creation_method FINDSYM

_chemical_name_mineral 'MgB12H12[H2O]12'
_chemical_formula_sum 'B12 H36 Mg O12'

loop_
_publ_author_name
 'I. Tiritiris'
 'T. Schleid'
_journal_year 2004
_publ_Section_title
;
 Synthesis, Crystal Structure, and Thermal Decomposition of Mg(H$_{2}$O)$_{6}$[B$_{12}$H$_{12}$]$\times$6H$_{2}$O
;

# Found in Pearson's Crystal Data - Crystal Structure Database for Inorganic Compounds, 2013

_aflow_title 'MgB$_{12}$H$_{12}$[H$_{2}$O]$_{12}$ Structure'
_aflow_proto 'A12B36CD12_cF488_210_h_3h_a_fg'
_aflow_params 'a,x_{2},y_{3},x_{4},y_{4},z_{4},x_{5},y_{5},z_{5},x_{6},y_{6},z_{6},x_{7},y_{7},z_{7}'
_aflow_params_values '16.4321054599,0.12536,0.51382,0.55423,0.58845,0.50025,0.5008,0.59,0.3557,0.5123,0.5411,0.1708,0.5347,0.2125,0.5888'
_aflow_Strukturbericht 'None'
_aflow_Pearson 'cF488'

_cell_length_a  16.4321054599
_cell_length_b  16.4321054599
_cell_length_c  16.4321054599
_cell_angle_alpha  90.0000000000
_cell_angle_beta  90.0000000000
_cell_angle_gamma  90.0000000000
_symmetry_Int_Tables_number 210
_symmetry_space_group_name_H-M  "F4_{1}32"
 
loop_
_space_group_symop_id
_space_group_symop_operation_xyz
1 x,y,z
2 x,-y,-z
3 -x,y,-z
4 -x,-y,z
5 y,z,x
6 y,-z,-x
7 -y,z,-x
8 -y,-z,x
9 z,x,y
10 z,-x,-y
11 -z,x,-y
12 -z,-x,y
13 x,y+1/2,z+1/2
14 x,-y+1/2,-z+1/2
15 -x,y+1/2,-z+1/2
16 -x,-y+1/2,z+1/2
17 y,z+1/2,x+1/2
18 y,-z+1/2,-x+1/2
19 -y,z+1/2,-x+1/2
20 -y,-z+1/2,x+1/2
21 z,x+1/2,y+1/2
22 z,-x+1/2,-y+1/2
23 -z,x+1/2,-y+1/2
24 -z,-x+1/2,y+1/2
25 x+1/2,y,z+1/2
26 x+1/2,-y,-z+1/2
27 -x+1/2,y,-z+1/2
28 -x+1/2,-y,z+1/2
29 y+1/2,z,x+1/2
30 y+1/2,-z,-x+1/2
31 -y+1/2,z,-x+1/2
32 -y+1/2,-z,x+1/2
33 z+1/2,x,y+1/2
34 z+1/2,-x,-y+1/2
35 -z+1/2,x,-y+1/2
36 -z+1/2,-x,y+1/2
37 x+1/2,y+1/2,z
38 x+1/2,-y+1/2,-z
39 -x+1/2,y+1/2,-z
40 -x+1/2,-y+1/2,z
41 y+1/2,z+1/2,x
42 y+1/2,-z+1/2,-x
43 -y+1/2,z+1/2,-x
44 -y+1/2,-z+1/2,x
45 z+1/2,x+1/2,y
46 z+1/2,-x+1/2,-y
47 -z+1/2,x+1/2,-y
48 -z+1/2,-x+1/2,y
1  x,y,z
2  -x,-y+1/2,z+1/2
3  -x+1/2,y+1/2,-z
4  x+1/2,-y,-z+1/2
5  z,x,y
6  z+1/2,-x,-y+1/2
7  -z,-x+1/2,y+1/2
8  -z+1/2,x+1/2,-y
9  y,z,x
10  -y+1/2,z+1/2,-x
11  y+1/2,-z,-x+1/2
12  -y,-z+1/2,x+1/2
13  y+3/4,x+1/4,-z+3/4
14  -y+1/4,-x+1/4,-z+1/4
15  y+1/4,-x+3/4,z+3/4
16  -y+3/4,x+3/4,z+1/4
17  x+3/4,z+1/4,-y+3/4
18  -x+3/4,z+3/4,y+1/4
19  -x+1/4,-z+1/4,-y+1/4
20  x+1/4,-z+3/4,y+3/4
21  z+3/4,y+1/4,-x+3/4
22  z+1/4,-y+3/4,x+3/4
23  -z+3/4,y+3/4,x+1/4
24  -z+1/4,-y+1/4,-x+1/4
25  x,y+1/2,z+1/2
26  -x,-y,z
27  -x+1/2,y,-z+1/2
28  x+1/2,-y+1/2,-z
29  z,x+1/2,y+1/2
30  z+1/2,-x+1/2,-y
31  -z,-x,y
32  -z+1/2,x,-y+1/2
33  y,z+1/2,x+1/2
34  -y+1/2,z,-x+1/2
35  y+1/2,-z+1/2,-x
36  -y,-z,x
37  y+3/4,x+3/4,-z+1/4
38  -y+1/4,-x+3/4,-z+3/4
39  y+1/4,-x+1/4,z+1/4
40  -y+3/4,x+1/4,z+3/4
41  x+3/4,z+3/4,-y+1/4
42  -x+3/4,z+1/4,y+3/4
43  -x+1/4,-z+3/4,-y+3/4
44  x+1/4,-z+1/4,y+1/4
45  z+3/4,y+3/4,-x+1/4
46  z+1/4,-y+1/4,x+1/4
47  -z+3/4,y+1/4,x+3/4
48  -z+1/4,-y+3/4,-x+3/4
49  x+1/2,y,z+1/2
50  -x+1/2,-y+1/2,z
51  -x,y+1/2,-z+1/2
52  x,-y,-z
53  z+1/2,x,y+1/2
54  z,-x,-y
55  -z+1/2,-x+1/2,y
56  -z,x+1/2,-y+1/2
57  y+1/2,z,x+1/2
58  -y,z+1/2,-x+1/2
59  y,-z,-x
60  -y+1/2,-z+1/2,x
61  y+1/4,x+1/4,-z+1/4
62  -y+3/4,-x+1/4,-z+3/4
63  y+3/4,-x+3/4,z+1/4
64  -y+1/4,x+3/4,z+3/4
65  x+1/4,z+1/4,-y+1/4
66  -x+1/4,z+3/4,y+3/4
67  -x+3/4,-z+1/4,-y+3/4
68  x+3/4,-z+3/4,y+1/4
69  z+1/4,y+1/4,-x+1/4
70  z+3/4,-y+3/4,x+1/4
71  -z+1/4,y+3/4,x+3/4
72  -z+3/4,-y+1/4,-x+3/4
73  x+1/2,y+1/2,z
74  -x+1/2,-y,z+1/2
75  -x,y,-z
76  x,-y+1/2,-z+1/2
77  z+1/2,x+1/2,y
78  z,-x+1/2,-y+1/2
79  -z+1/2,-x,y+1/2
80  -z,x,-y
81  y+1/2,z+1/2,x
82  -y,z,-x
83  y,-z+1/2,-x+1/2
84  -y+1/2,-z,x+1/2
85  y+1/4,x+3/4,-z+3/4
86  -y+3/4,-x+3/4,-z+1/4
87  y+3/4,-x+1/4,z+3/4
88  -y+1/4,x+1/4,z+1/4
89  x+1/4,z+3/4,-y+3/4
90  -x+1/4,z+1/4,y+1/4
91  -x+3/4,-z+3/4,-y+1/4
92  x+3/4,-z+1/4,y+3/4
93  z+1/4,y+3/4,-x+3/4
94  z+3/4,-y+1/4,x+3/4
95  -z+1/4,y+1/4,x+1/4
96  -z+3/4,-y+3/4,-x+1/4
 
loop_
_atom_site_label
_atom_site_type_symbol
_atom_site_symmetry_multiplicity
_atom_site_Wyckoff_label
_atom_site_fract_x
_atom_site_fract_y
_atom_site_fract_z
_atom_site_occupancy
Mg1 Mg 8 a 0.0000000000 -0.0000000000 0.0000000000 1.0000
O1 O 48 f 0.1253600000 -0.0000000000 0.0000000000 1.0000
O2 O 48 g 0.1250000000 0.5138200000 0.7362800000  1.0000
B1 B 96 h 0.5542300000 0.5884500000 0.5002500000 1.0000
H1 H 96 h 0.5008000000 0.5900000000 0.3557000000 1.0000
H2 H 96 h 0.5123000000 0.5411000000 0.1708000000 1.0000
H3 H 96 h 0.5347000000 0.2125000000 0.5888000000 1.0000
