# CIF file
data_findsym-output
_audit_creation_method FINDSYM

_chemical_name_mineral 'beta-SeO2'
_chemical_formula_sum 'O2 Se'

loop_
_publ_author_name
 'D. Orosel'
 'O. Leynaud'
 'P. Balog'
 'M. Jansen'
_journal_name_full_name
;
 Journal of Solid State Chemistry
;
_journal_volume 177
_journal_year 2004
_journal_page_first 1631
_journal_page_last 1638
_publ_Section_title
;
 Pressure-temperature phase diagram of SeO$_{2}$. Characterization of new phases
;

# Found in Pearson's Crystal Data - Crystal Structure Database for Inorganic Compounds, 2013

_aflow_title '$\beta$-SeO$_{2}$ Structure'
_aflow_proto 'A2B_oP12_26_abc_ab'
_aflow_params 'a,b/a,c/a,y_{1},z_{1},y_{2},z_{2},y_{3},z_{3},y_{4},z_{4},x_{5},y_{5},z_{5}'
_aflow_params_values '5.0725824349,0.881353258932,1.48474034935,0.12,0.0,0.2484,0.461,0.246,0.289,0.3781,0.0862,0.253,0.652,0.12'
_aflow_Strukturbericht 'None'
_aflow_Pearson 'oP12'

_cell_length_a    5.0725824349
_cell_length_b    4.4707370602
_cell_length_c    7.5314678165
_cell_angle_alpha 90.0000000000
_cell_angle_beta  90.0000000000
_cell_angle_gamma 90.0000000000
 
_symmetry_space_group_name_H-M "P m c 21"
_symmetry_Int_Tables_number 26
 
loop_
_space_group_symop_id
_space_group_symop_operation_xyz
1 x,y,z
2 -x,-y,z+1/2
3 -x,y,z
4 x,-y,z+1/2
 
loop_
_atom_site_label
_atom_site_type_symbol
_atom_site_symmetry_multiplicity
_atom_site_Wyckoff_label
_atom_site_fract_x
_atom_site_fract_y
_atom_site_fract_z
_atom_site_occupancy
O1 O   2 a 0.00000 0.12000 0.00000 1.00000
Se1 Se   2 a 0.00000 0.24840 0.46100 1.00000
O2 O   2 b 0.50000 0.24600 0.28900 1.00000
Se2 Se   2 b 0.50000 0.37810 0.08620 1.00000
O3 O   4 c 0.25300 0.65200 0.12000 1.00000
