# CIF file 
data_findsym-output
_audit_creation_method FINDSYM

_chemical_name_mineral '$\alpha$-FeSe'
_chemical_formula_sum 'Fe Se'

loop_
_publ_author_name
 'D. Louca'
 'K. Horigane'
 'A. Llobet'
 'R. Arita'
 'S. Ji'
 'N. Katayama'
 'S. Konbu'
 'K. Nakamura'
 'T.-Y. Koo'
 'P. Tong'
 'K. Yamada'
_journal_name_full_name
;
 Physical Review B
;
_journal_volume 81
_journal_year 2010
_journal_page_first 134524
_journal_page_last 134524
_publ_Section_title
;
 Local atomic structure of superconducting FeSe$_{1-x}$Te$_{x}$
;

_aflow_title '$\alpha$-FeSe Structure'
_aflow_proto 'AB_oC8_67_a_g'
_aflow_params 'a,b/a,c/a,z_{2}'
_aflow_params_values '5.32495,0.997010300566,1.02896740814,0.26686'
_aflow_Strukturbericht 'None'
_aflow_Pearson 'oC8'

_symmetry_space_group_name_H-M "C 2/m 2/m 2/a"
_symmetry_Int_Tables_number 67
 
_cell_length_a    5.32495
_cell_length_b    5.30903
_cell_length_c    5.47920
_cell_angle_alpha 90.00000
_cell_angle_beta  90.00000
_cell_angle_gamma 90.00000
 
loop_
_space_group_symop_id
_space_group_symop_operation_xyz
1 x,y,z
2 x,-y,-z
3 -x+1/2,y,-z
4 -x+1/2,-y,z
5 -x,-y,-z
6 -x,y,z
7 x+1/2,-y,z
8 x+1/2,y,-z
9 x+1/2,y+1/2,z
10 x+1/2,-y+1/2,-z
11 -x,y+1/2,-z
12 -x,-y+1/2,z
13 -x+1/2,-y+1/2,-z
14 -x+1/2,y+1/2,z
15 x,-y+1/2,z
16 x,y+1/2,-z
 
loop_
_atom_site_label
_atom_site_type_symbol
_atom_site_symmetry_multiplicity
_atom_site_Wyckoff_label
_atom_site_fract_x
_atom_site_fract_y
_atom_site_fract_z
_atom_site_occupancy
Fe1 Fe   4 a 0.25000 0.00000 0.00000 1.00000
Se1 Se   4 g 0.00000 0.25000 0.26686 1.00000
